file 95514641 1480531425                                        
version 2
run General-0-20161130-19:43:08-4885
attr configname General
attr datetime 20161130-19:43:08
attr experiment General
attr inifile omnetpp.ini
attr iterationvars ""
attr iterationvars2 $repetition=0
attr measurement ""
attr network net
attr processid 4885
attr repetition 0
attr replication #0
attr resultdir results
attr runnumber 0
attr seedset 0

vector 2  net.node[0].veinsmobility  posx  ETV
vector 3  net.node[0].veinsmobility  posy  ETV
vector 4  net.node[0].veinsmobility  speed  ETV
vector 5  net.node[0].veinsmobility  acceleration  ETV
vector 6  net.node[0].veinsmobility  co2emission  ETV
vector 9  net.node[1].veinsmobility  posx  ETV
vector 10  net.node[1].veinsmobility  posy  ETV
vector 11  net.node[1].veinsmobility  speed  ETV
vector 12  net.node[1].veinsmobility  acceleration  ETV
vector 13  net.node[1].veinsmobility  co2emission  ETV
vector 16  net.node[2].veinsmobility  posx  ETV
vector 17  net.node[2].veinsmobility  posy  ETV
vector 18  net.node[2].veinsmobility  speed  ETV
vector 19  net.node[2].veinsmobility  acceleration  ETV
vector 20  net.node[2].veinsmobility  co2emission  ETV
vector 23  net.node[3].veinsmobility  posx  ETV
vector 24  net.node[3].veinsmobility  posy  ETV
vector 25  net.node[3].veinsmobility  speed  ETV
vector 26  net.node[3].veinsmobility  acceleration  ETV
vector 27  net.node[3].veinsmobility  co2emission  ETV
vector 30  net.node[4].veinsmobility  posx  ETV
vector 31  net.node[4].veinsmobility  posy  ETV
vector 32  net.node[4].veinsmobility  speed  ETV
vector 33  net.node[4].veinsmobility  acceleration  ETV
vector 34  net.node[4].veinsmobility  co2emission  ETV
vector 37  net.node[5].veinsmobility  posx  ETV
vector 38  net.node[5].veinsmobility  posy  ETV
vector 39  net.node[5].veinsmobility  speed  ETV
vector 40  net.node[5].veinsmobility  acceleration  ETV
vector 41  net.node[5].veinsmobility  co2emission  ETV
vector 44  net.node[6].veinsmobility  posx  ETV
vector 45  net.node[6].veinsmobility  posy  ETV
vector 46  net.node[6].veinsmobility  speed  ETV
vector 47  net.node[6].veinsmobility  acceleration  ETV
vector 48  net.node[6].veinsmobility  co2emission  ETV
vector 51  net.node[7].veinsmobility  posx  ETV
vector 52  net.node[7].veinsmobility  posy  ETV
vector 53  net.node[7].veinsmobility  speed  ETV
vector 54  net.node[7].veinsmobility  acceleration  ETV
vector 55  net.node[7].veinsmobility  co2emission  ETV
vector 58  net.node[8].veinsmobility  posx  ETV
vector 59  net.node[8].veinsmobility  posy  ETV
vector 60  net.node[8].veinsmobility  speed  ETV
vector 61  net.node[8].veinsmobility  acceleration  ETV
vector 62  net.node[8].veinsmobility  co2emission  ETV
vector 65  net.node[9].veinsmobility  posx  ETV
vector 66  net.node[9].veinsmobility  posy  ETV
vector 67  net.node[9].veinsmobility  speed  ETV
vector 68  net.node[9].veinsmobility  acceleration  ETV
vector 69  net.node[9].veinsmobility  co2emission  ETV
vector 72  net.node[10].veinsmobility  posx  ETV
vector 73  net.node[10].veinsmobility  posy  ETV
vector 74  net.node[10].veinsmobility  speed  ETV
vector 75  net.node[10].veinsmobility  acceleration  ETV
vector 76  net.node[10].veinsmobility  co2emission  ETV
vector 79  net.node[11].veinsmobility  posx  ETV
vector 80  net.node[11].veinsmobility  posy  ETV
vector 81  net.node[11].veinsmobility  speed  ETV
vector 82  net.node[11].veinsmobility  acceleration  ETV
vector 83  net.node[11].veinsmobility  co2emission  ETV
vector 93  net.node[13].veinsmobility  posx  ETV
vector 94  net.node[13].veinsmobility  posy  ETV
vector 95  net.node[13].veinsmobility  speed  ETV
vector 96  net.node[13].veinsmobility  acceleration  ETV
vector 97  net.node[13].veinsmobility  co2emission  ETV
vector 100  net.node[14].veinsmobility  posx  ETV
vector 101  net.node[14].veinsmobility  posy  ETV
vector 102  net.node[14].veinsmobility  speed  ETV
vector 103  net.node[14].veinsmobility  acceleration  ETV
vector 104  net.node[14].veinsmobility  co2emission  ETV
vector 107  net.node[15].veinsmobility  posx  ETV
vector 108  net.node[15].veinsmobility  posy  ETV
vector 109  net.node[15].veinsmobility  speed  ETV
vector 110  net.node[15].veinsmobility  acceleration  ETV
vector 111  net.node[15].veinsmobility  co2emission  ETV
vector 114  net.node[16].veinsmobility  posx  ETV
vector 115  net.node[16].veinsmobility  posy  ETV
vector 116  net.node[16].veinsmobility  speed  ETV
vector 117  net.node[16].veinsmobility  acceleration  ETV
vector 118  net.node[16].veinsmobility  co2emission  ETV
vector 121  net.node[17].veinsmobility  posx  ETV
vector 122  net.node[17].veinsmobility  posy  ETV
vector 123  net.node[17].veinsmobility  speed  ETV
vector 124  net.node[17].veinsmobility  acceleration  ETV
vector 125  net.node[17].veinsmobility  co2emission  ETV
vector 128  net.node[18].veinsmobility  posx  ETV
vector 129  net.node[18].veinsmobility  posy  ETV
vector 130  net.node[18].veinsmobility  speed  ETV
vector 131  net.node[18].veinsmobility  acceleration  ETV
vector 132  net.node[18].veinsmobility  co2emission  ETV
vector 135  net.node[19].veinsmobility  posx  ETV
vector 136  net.node[19].veinsmobility  posy  ETV
vector 137  net.node[19].veinsmobility  speed  ETV
vector 138  net.node[19].veinsmobility  acceleration  ETV
vector 139  net.node[19].veinsmobility  co2emission  ETV
vector 142  net.node[20].veinsmobility  posx  ETV
vector 143  net.node[20].veinsmobility  posy  ETV
vector 144  net.node[20].veinsmobility  speed  ETV
vector 145  net.node[20].veinsmobility  acceleration  ETV
vector 146  net.node[20].veinsmobility  co2emission  ETV
vector 149  net.node[21].veinsmobility  posx  ETV
vector 150  net.node[21].veinsmobility  posy  ETV
vector 151  net.node[21].veinsmobility  speed  ETV
vector 152  net.node[21].veinsmobility  acceleration  ETV
vector 153  net.node[21].veinsmobility  co2emission  ETV
vector 156  net.node[22].veinsmobility  posx  ETV
vector 157  net.node[22].veinsmobility  posy  ETV
vector 158  net.node[22].veinsmobility  speed  ETV
vector 159  net.node[22].veinsmobility  acceleration  ETV
vector 160  net.node[22].veinsmobility  co2emission  ETV
vector 163  net.node[23].veinsmobility  posx  ETV
vector 164  net.node[23].veinsmobility  posy  ETV
vector 165  net.node[23].veinsmobility  speed  ETV
vector 166  net.node[23].veinsmobility  acceleration  ETV
vector 167  net.node[23].veinsmobility  co2emission  ETV
vector 170  net.node[24].veinsmobility  posx  ETV
vector 171  net.node[24].veinsmobility  posy  ETV
vector 172  net.node[24].veinsmobility  speed  ETV
vector 173  net.node[24].veinsmobility  acceleration  ETV
vector 174  net.node[24].veinsmobility  co2emission  ETV
vector 177  net.node[25].veinsmobility  posx  ETV
vector 178  net.node[25].veinsmobility  posy  ETV
vector 179  net.node[25].veinsmobility  speed  ETV
vector 180  net.node[25].veinsmobility  acceleration  ETV
vector 181  net.node[25].veinsmobility  co2emission  ETV
vector 184  net.node[26].veinsmobility  posx  ETV
vector 185  net.node[26].veinsmobility  posy  ETV
vector 186  net.node[26].veinsmobility  speed  ETV
vector 187  net.node[26].veinsmobility  acceleration  ETV
vector 188  net.node[26].veinsmobility  co2emission  ETV
vector 191  net.node[27].veinsmobility  posx  ETV
vector 192  net.node[27].veinsmobility  posy  ETV
vector 193  net.node[27].veinsmobility  speed  ETV
vector 194  net.node[27].veinsmobility  acceleration  ETV
vector 195  net.node[27].veinsmobility  co2emission  ETV
vector 198  net.node[28].veinsmobility  posx  ETV
vector 199  net.node[28].veinsmobility  posy  ETV
vector 200  net.node[28].veinsmobility  speed  ETV
vector 201  net.node[28].veinsmobility  acceleration  ETV
vector 202  net.node[28].veinsmobility  co2emission  ETV
vector 205  net.node[29].veinsmobility  posx  ETV
vector 206  net.node[29].veinsmobility  posy  ETV
vector 207  net.node[29].veinsmobility  speed  ETV
vector 208  net.node[29].veinsmobility  acceleration  ETV
vector 209  net.node[29].veinsmobility  co2emission  ETV
vector 212  net.node[30].veinsmobility  posx  ETV
vector 213  net.node[30].veinsmobility  posy  ETV
vector 214  net.node[30].veinsmobility  speed  ETV
vector 215  net.node[30].veinsmobility  acceleration  ETV
vector 216  net.node[30].veinsmobility  co2emission  ETV
vector 219  net.node[31].veinsmobility  posx  ETV
vector 220  net.node[31].veinsmobility  posy  ETV
vector 221  net.node[31].veinsmobility  speed  ETV
vector 222  net.node[31].veinsmobility  acceleration  ETV
vector 223  net.node[31].veinsmobility  co2emission  ETV
vector 226  net.node[32].veinsmobility  posx  ETV
vector 227  net.node[32].veinsmobility  posy  ETV
vector 228  net.node[32].veinsmobility  speed  ETV
vector 229  net.node[32].veinsmobility  acceleration  ETV
vector 230  net.node[32].veinsmobility  co2emission  ETV
vector 233  net.node[33].veinsmobility  posx  ETV
vector 234  net.node[33].veinsmobility  posy  ETV
vector 235  net.node[33].veinsmobility  speed  ETV
vector 236  net.node[33].veinsmobility  acceleration  ETV
vector 237  net.node[33].veinsmobility  co2emission  ETV
vector 240  net.node[34].veinsmobility  posx  ETV
vector 241  net.node[34].veinsmobility  posy  ETV
vector 242  net.node[34].veinsmobility  speed  ETV
vector 243  net.node[34].veinsmobility  acceleration  ETV
vector 244  net.node[34].veinsmobility  co2emission  ETV
vector 247  net.node[35].veinsmobility  posx  ETV
vector 248  net.node[35].veinsmobility  posy  ETV
vector 249  net.node[35].veinsmobility  speed  ETV
vector 250  net.node[35].veinsmobility  acceleration  ETV
vector 251  net.node[35].veinsmobility  co2emission  ETV
vector 254  net.node[36].veinsmobility  posx  ETV
vector 255  net.node[36].veinsmobility  posy  ETV
vector 256  net.node[36].veinsmobility  speed  ETV
vector 257  net.node[36].veinsmobility  acceleration  ETV
vector 258  net.node[36].veinsmobility  co2emission  ETV
vector 261  net.node[37].veinsmobility  posx  ETV
vector 262  net.node[37].veinsmobility  posy  ETV
vector 263  net.node[37].veinsmobility  speed  ETV
vector 264  net.node[37].veinsmobility  acceleration  ETV
vector 265  net.node[37].veinsmobility  co2emission  ETV
vector 268  net.node[38].veinsmobility  posx  ETV
vector 269  net.node[38].veinsmobility  posy  ETV
vector 270  net.node[38].veinsmobility  speed  ETV
vector 271  net.node[38].veinsmobility  acceleration  ETV
vector 272  net.node[38].veinsmobility  co2emission  ETV
vector 275  net.node[39].veinsmobility  posx  ETV
vector 276  net.node[39].veinsmobility  posy  ETV
vector 277  net.node[39].veinsmobility  speed  ETV
vector 278  net.node[39].veinsmobility  acceleration  ETV
vector 279  net.node[39].veinsmobility  co2emission  ETV
vector 282  net.node[40].veinsmobility  posx  ETV
vector 283  net.node[40].veinsmobility  posy  ETV
vector 284  net.node[40].veinsmobility  speed  ETV
vector 285  net.node[40].veinsmobility  acceleration  ETV
vector 286  net.node[40].veinsmobility  co2emission  ETV
vector 289  net.node[41].veinsmobility  posx  ETV
vector 290  net.node[41].veinsmobility  posy  ETV
vector 291  net.node[41].veinsmobility  speed  ETV
vector 292  net.node[41].veinsmobility  acceleration  ETV
vector 293  net.node[41].veinsmobility  co2emission  ETV
vector 296  net.node[42].veinsmobility  posx  ETV
vector 297  net.node[42].veinsmobility  posy  ETV
vector 298  net.node[42].veinsmobility  speed  ETV
vector 299  net.node[42].veinsmobility  acceleration  ETV
vector 300  net.node[42].veinsmobility  co2emission  ETV
vector 303  net.node[43].veinsmobility  posx  ETV
vector 304  net.node[43].veinsmobility  posy  ETV
vector 305  net.node[43].veinsmobility  speed  ETV
vector 306  net.node[43].veinsmobility  acceleration  ETV
vector 307  net.node[43].veinsmobility  co2emission  ETV
vector 310  net.node[44].veinsmobility  posx  ETV
vector 311  net.node[44].veinsmobility  posy  ETV
vector 312  net.node[44].veinsmobility  speed  ETV
vector 313  net.node[44].veinsmobility  acceleration  ETV
vector 314  net.node[44].veinsmobility  co2emission  ETV
vector 317  net.node[45].veinsmobility  posx  ETV
vector 318  net.node[45].veinsmobility  posy  ETV
vector 319  net.node[45].veinsmobility  speed  ETV
vector 320  net.node[45].veinsmobility  acceleration  ETV
vector 321  net.node[45].veinsmobility  co2emission  ETV
vector 324  net.node[46].veinsmobility  posx  ETV
vector 325  net.node[46].veinsmobility  posy  ETV
vector 326  net.node[46].veinsmobility  speed  ETV
vector 327  net.node[46].veinsmobility  acceleration  ETV
vector 328  net.node[46].veinsmobility  co2emission  ETV
vector 331  net.node[47].veinsmobility  posx  ETV
vector 332  net.node[47].veinsmobility  posy  ETV
vector 333  net.node[47].veinsmobility  speed  ETV
vector 334  net.node[47].veinsmobility  acceleration  ETV
vector 335  net.node[47].veinsmobility  co2emission  ETV
vector 338  net.node[48].veinsmobility  posx  ETV
vector 339  net.node[48].veinsmobility  posy  ETV
vector 340  net.node[48].veinsmobility  speed  ETV
vector 341  net.node[48].veinsmobility  acceleration  ETV
vector 342  net.node[48].veinsmobility  co2emission  ETV
vector 345  net.node[49].veinsmobility  posx  ETV
vector 346  net.node[49].veinsmobility  posy  ETV
vector 347  net.node[49].veinsmobility  speed  ETV
vector 348  net.node[49].veinsmobility  acceleration  ETV
vector 349  net.node[49].veinsmobility  co2emission  ETV
vector 352  net.node[50].veinsmobility  posx  ETV
vector 353  net.node[50].veinsmobility  posy  ETV
vector 354  net.node[50].veinsmobility  speed  ETV
vector 355  net.node[50].veinsmobility  acceleration  ETV
vector 356  net.node[50].veinsmobility  co2emission  ETV
vector 359  net.node[51].veinsmobility  posx  ETV
vector 360  net.node[51].veinsmobility  posy  ETV
vector 361  net.node[51].veinsmobility  speed  ETV
vector 362  net.node[51].veinsmobility  acceleration  ETV
vector 363  net.node[51].veinsmobility  co2emission  ETV
vector 366  net.node[52].veinsmobility  posx  ETV
vector 367  net.node[52].veinsmobility  posy  ETV
vector 368  net.node[52].veinsmobility  speed  ETV
vector 369  net.node[52].veinsmobility  acceleration  ETV
vector 370  net.node[52].veinsmobility  co2emission  ETV
vector 373  net.node[53].veinsmobility  posx  ETV
vector 374  net.node[53].veinsmobility  posy  ETV
vector 375  net.node[53].veinsmobility  speed  ETV
vector 376  net.node[53].veinsmobility  acceleration  ETV
vector 377  net.node[53].veinsmobility  co2emission  ETV
vector 380  net.node[54].veinsmobility  posx  ETV
vector 381  net.node[54].veinsmobility  posy  ETV
vector 382  net.node[54].veinsmobility  speed  ETV
vector 383  net.node[54].veinsmobility  acceleration  ETV
vector 384  net.node[54].veinsmobility  co2emission  ETV
vector 387  net.node[55].veinsmobility  posx  ETV
vector 388  net.node[55].veinsmobility  posy  ETV
vector 389  net.node[55].veinsmobility  speed  ETV
vector 390  net.node[55].veinsmobility  acceleration  ETV
vector 391  net.node[55].veinsmobility  co2emission  ETV
vector 394  net.node[56].veinsmobility  posx  ETV
vector 395  net.node[56].veinsmobility  posy  ETV
vector 396  net.node[56].veinsmobility  speed  ETV
vector 397  net.node[56].veinsmobility  acceleration  ETV
vector 398  net.node[56].veinsmobility  co2emission  ETV
vector 401  net.node[57].veinsmobility  posx  ETV
vector 402  net.node[57].veinsmobility  posy  ETV
vector 403  net.node[57].veinsmobility  speed  ETV
vector 404  net.node[57].veinsmobility  acceleration  ETV
vector 405  net.node[57].veinsmobility  co2emission  ETV
vector 408  net.node[58].veinsmobility  posx  ETV
vector 409  net.node[58].veinsmobility  posy  ETV
vector 410  net.node[58].veinsmobility  speed  ETV
vector 411  net.node[58].veinsmobility  acceleration  ETV
vector 412  net.node[58].veinsmobility  co2emission  ETV
vector 415  net.node[59].veinsmobility  posx  ETV
vector 416  net.node[59].veinsmobility  posy  ETV
vector 417  net.node[59].veinsmobility  speed  ETV
vector 418  net.node[59].veinsmobility  acceleration  ETV
vector 419  net.node[59].veinsmobility  co2emission  ETV
vector 422  net.node[60].veinsmobility  posx  ETV
vector 423  net.node[60].veinsmobility  posy  ETV
vector 424  net.node[60].veinsmobility  speed  ETV
vector 425  net.node[60].veinsmobility  acceleration  ETV
vector 426  net.node[60].veinsmobility  co2emission  ETV
vector 429  net.node[61].veinsmobility  posx  ETV
vector 430  net.node[61].veinsmobility  posy  ETV
vector 431  net.node[61].veinsmobility  speed  ETV
vector 432  net.node[61].veinsmobility  acceleration  ETV
vector 433  net.node[61].veinsmobility  co2emission  ETV
vector 436  net.node[62].veinsmobility  posx  ETV
vector 437  net.node[62].veinsmobility  posy  ETV
vector 438  net.node[62].veinsmobility  speed  ETV
vector 439  net.node[62].veinsmobility  acceleration  ETV
vector 440  net.node[62].veinsmobility  co2emission  ETV
vector 443  net.node[63].veinsmobility  posx  ETV
vector 444  net.node[63].veinsmobility  posy  ETV
vector 445  net.node[63].veinsmobility  speed  ETV
vector 446  net.node[63].veinsmobility  acceleration  ETV
vector 447  net.node[63].veinsmobility  co2emission  ETV
vector 450  net.node[64].veinsmobility  posx  ETV
vector 451  net.node[64].veinsmobility  posy  ETV
vector 452  net.node[64].veinsmobility  speed  ETV
vector 453  net.node[64].veinsmobility  acceleration  ETV
vector 454  net.node[64].veinsmobility  co2emission  ETV
vector 457  net.node[65].veinsmobility  posx  ETV
vector 458  net.node[65].veinsmobility  posy  ETV
vector 459  net.node[65].veinsmobility  speed  ETV
vector 460  net.node[65].veinsmobility  acceleration  ETV
vector 461  net.node[65].veinsmobility  co2emission  ETV
vector 464  net.node[66].veinsmobility  posx  ETV
vector 465  net.node[66].veinsmobility  posy  ETV
vector 466  net.node[66].veinsmobility  speed  ETV
vector 467  net.node[66].veinsmobility  acceleration  ETV
vector 468  net.node[66].veinsmobility  co2emission  ETV
vector 471  net.node[67].veinsmobility  posx  ETV
vector 472  net.node[67].veinsmobility  posy  ETV
vector 473  net.node[67].veinsmobility  speed  ETV
vector 474  net.node[67].veinsmobility  acceleration  ETV
vector 475  net.node[67].veinsmobility  co2emission  ETV
vector 478  net.node[68].veinsmobility  posx  ETV
vector 479  net.node[68].veinsmobility  posy  ETV
vector 480  net.node[68].veinsmobility  speed  ETV
vector 481  net.node[68].veinsmobility  acceleration  ETV
vector 482  net.node[68].veinsmobility  co2emission  ETV
vector 485  net.node[69].veinsmobility  posx  ETV
vector 486  net.node[69].veinsmobility  posy  ETV
vector 487  net.node[69].veinsmobility  speed  ETV
vector 488  net.node[69].veinsmobility  acceleration  ETV
vector 489  net.node[69].veinsmobility  co2emission  ETV
vector 492  net.node[70].veinsmobility  posx  ETV
vector 493  net.node[70].veinsmobility  posy  ETV
vector 494  net.node[70].veinsmobility  speed  ETV
vector 495  net.node[70].veinsmobility  acceleration  ETV
vector 496  net.node[70].veinsmobility  co2emission  ETV
vector 499  net.node[71].veinsmobility  posx  ETV
vector 500  net.node[71].veinsmobility  posy  ETV
vector 501  net.node[71].veinsmobility  speed  ETV
vector 502  net.node[71].veinsmobility  acceleration  ETV
vector 503  net.node[71].veinsmobility  co2emission  ETV
vector 506  net.node[72].veinsmobility  posx  ETV
vector 507  net.node[72].veinsmobility  posy  ETV
vector 508  net.node[72].veinsmobility  speed  ETV
vector 509  net.node[72].veinsmobility  acceleration  ETV
vector 510  net.node[72].veinsmobility  co2emission  ETV
vector 513  net.node[73].veinsmobility  posx  ETV
vector 514  net.node[73].veinsmobility  posy  ETV
vector 515  net.node[73].veinsmobility  speed  ETV
vector 516  net.node[73].veinsmobility  acceleration  ETV
vector 517  net.node[73].veinsmobility  co2emission  ETV
vector 520  net.node[74].veinsmobility  posx  ETV
vector 521  net.node[74].veinsmobility  posy  ETV
vector 522  net.node[74].veinsmobility  speed  ETV
vector 523  net.node[74].veinsmobility  acceleration  ETV
vector 524  net.node[74].veinsmobility  co2emission  ETV
vector 527  net.node[75].veinsmobility  posx  ETV
vector 528  net.node[75].veinsmobility  posy  ETV
vector 529  net.node[75].veinsmobility  speed  ETV
vector 530  net.node[75].veinsmobility  acceleration  ETV
vector 531  net.node[75].veinsmobility  co2emission  ETV
vector 534  net.node[76].veinsmobility  posx  ETV
vector 535  net.node[76].veinsmobility  posy  ETV
vector 536  net.node[76].veinsmobility  speed  ETV
vector 537  net.node[76].veinsmobility  acceleration  ETV
vector 538  net.node[76].veinsmobility  co2emission  ETV
vector 541  net.node[77].veinsmobility  posx  ETV
vector 542  net.node[77].veinsmobility  posy  ETV
vector 543  net.node[77].veinsmobility  speed  ETV
vector 544  net.node[77].veinsmobility  acceleration  ETV
vector 545  net.node[77].veinsmobility  co2emission  ETV
vector 548  net.node[78].veinsmobility  posx  ETV
vector 549  net.node[78].veinsmobility  posy  ETV
vector 550  net.node[78].veinsmobility  speed  ETV
vector 551  net.node[78].veinsmobility  acceleration  ETV
vector 552  net.node[78].veinsmobility  co2emission  ETV
vector 555  net.node[79].veinsmobility  posx  ETV
vector 556  net.node[79].veinsmobility  posy  ETV
vector 557  net.node[79].veinsmobility  speed  ETV
vector 558  net.node[79].veinsmobility  acceleration  ETV
vector 559  net.node[79].veinsmobility  co2emission  ETV
vector 562  net.node[80].veinsmobility  posx  ETV
vector 563  net.node[80].veinsmobility  posy  ETV
vector 564  net.node[80].veinsmobility  speed  ETV
vector 565  net.node[80].veinsmobility  acceleration  ETV
vector 566  net.node[80].veinsmobility  co2emission  ETV
vector 569  net.node[81].veinsmobility  posx  ETV
vector 570  net.node[81].veinsmobility  posy  ETV
vector 571  net.node[81].veinsmobility  speed  ETV
vector 572  net.node[81].veinsmobility  acceleration  ETV
vector 573  net.node[81].veinsmobility  co2emission  ETV
vector 576  net.node[82].veinsmobility  posx  ETV
vector 577  net.node[82].veinsmobility  posy  ETV
vector 578  net.node[82].veinsmobility  speed  ETV
vector 579  net.node[82].veinsmobility  acceleration  ETV
vector 580  net.node[82].veinsmobility  co2emission  ETV
vector 583  net.node[83].veinsmobility  posx  ETV
vector 584  net.node[83].veinsmobility  posy  ETV
vector 585  net.node[83].veinsmobility  speed  ETV
vector 586  net.node[83].veinsmobility  acceleration  ETV
vector 587  net.node[83].veinsmobility  co2emission  ETV
vector 590  net.node[84].veinsmobility  posx  ETV
vector 591  net.node[84].veinsmobility  posy  ETV
vector 592  net.node[84].veinsmobility  speed  ETV
vector 593  net.node[84].veinsmobility  acceleration  ETV
vector 594  net.node[84].veinsmobility  co2emission  ETV
vector 597  net.node[85].veinsmobility  posx  ETV
vector 598  net.node[85].veinsmobility  posy  ETV
vector 599  net.node[85].veinsmobility  speed  ETV
vector 600  net.node[85].veinsmobility  acceleration  ETV
vector 601  net.node[85].veinsmobility  co2emission  ETV
vector 604  net.node[86].veinsmobility  posx  ETV
vector 605  net.node[86].veinsmobility  posy  ETV
vector 606  net.node[86].veinsmobility  speed  ETV
vector 607  net.node[86].veinsmobility  acceleration  ETV
vector 608  net.node[86].veinsmobility  co2emission  ETV
vector 611  net.node[87].veinsmobility  posx  ETV
vector 612  net.node[87].veinsmobility  posy  ETV
vector 613  net.node[87].veinsmobility  speed  ETV
vector 614  net.node[87].veinsmobility  acceleration  ETV
vector 615  net.node[87].veinsmobility  co2emission  ETV
vector 618  net.node[88].veinsmobility  posx  ETV
vector 619  net.node[88].veinsmobility  posy  ETV
vector 620  net.node[88].veinsmobility  speed  ETV
vector 621  net.node[88].veinsmobility  acceleration  ETV
vector 622  net.node[88].veinsmobility  co2emission  ETV
vector 625  net.node[89].veinsmobility  posx  ETV
vector 626  net.node[89].veinsmobility  posy  ETV
vector 627  net.node[89].veinsmobility  speed  ETV
vector 628  net.node[89].veinsmobility  acceleration  ETV
vector 629  net.node[89].veinsmobility  co2emission  ETV
vector 632  net.node[90].veinsmobility  posx  ETV
vector 633  net.node[90].veinsmobility  posy  ETV
vector 634  net.node[90].veinsmobility  speed  ETV
vector 635  net.node[90].veinsmobility  acceleration  ETV
vector 636  net.node[90].veinsmobility  co2emission  ETV
vector 639  net.node[91].veinsmobility  posx  ETV
vector 640  net.node[91].veinsmobility  posy  ETV
vector 641  net.node[91].veinsmobility  speed  ETV
vector 642  net.node[91].veinsmobility  acceleration  ETV
vector 643  net.node[91].veinsmobility  co2emission  ETV
vector 646  net.node[92].veinsmobility  posx  ETV
vector 647  net.node[92].veinsmobility  posy  ETV
vector 648  net.node[92].veinsmobility  speed  ETV
vector 649  net.node[92].veinsmobility  acceleration  ETV
vector 650  net.node[92].veinsmobility  co2emission  ETV
vector 653  net.node[93].veinsmobility  posx  ETV
vector 654  net.node[93].veinsmobility  posy  ETV
vector 655  net.node[93].veinsmobility  speed  ETV
vector 656  net.node[93].veinsmobility  acceleration  ETV
vector 657  net.node[93].veinsmobility  co2emission  ETV
vector 660  net.node[94].veinsmobility  posx  ETV
vector 661  net.node[94].veinsmobility  posy  ETV
vector 662  net.node[94].veinsmobility  speed  ETV
vector 663  net.node[94].veinsmobility  acceleration  ETV
vector 664  net.node[94].veinsmobility  co2emission  ETV
vector 667  net.node[95].veinsmobility  posx  ETV
vector 668  net.node[95].veinsmobility  posy  ETV
vector 669  net.node[95].veinsmobility  speed  ETV
vector 670  net.node[95].veinsmobility  acceleration  ETV
vector 671  net.node[95].veinsmobility  co2emission  ETV
vector 674  net.node[96].veinsmobility  posx  ETV
vector 675  net.node[96].veinsmobility  posy  ETV
vector 676  net.node[96].veinsmobility  speed  ETV
vector 677  net.node[96].veinsmobility  acceleration  ETV
vector 678  net.node[96].veinsmobility  co2emission  ETV
vector 681  net.node[97].veinsmobility  posx  ETV
vector 682  net.node[97].veinsmobility  posy  ETV
vector 683  net.node[97].veinsmobility  speed  ETV
vector 684  net.node[97].veinsmobility  acceleration  ETV
vector 685  net.node[97].veinsmobility  co2emission  ETV
vector 688  net.node[98].veinsmobility  posx  ETV
vector 689  net.node[98].veinsmobility  posy  ETV
vector 690  net.node[98].veinsmobility  speed  ETV
vector 691  net.node[98].veinsmobility  acceleration  ETV
vector 692  net.node[98].veinsmobility  co2emission  ETV
vector 695  net.node[99].veinsmobility  posx  ETV
vector 696  net.node[99].veinsmobility  posy  ETV
vector 697  net.node[99].veinsmobility  speed  ETV
vector 698  net.node[99].veinsmobility  acceleration  ETV
vector 699  net.node[99].veinsmobility  co2emission  ETV
vector 702  net.node[100].veinsmobility  posx  ETV
vector 703  net.node[100].veinsmobility  posy  ETV
vector 704  net.node[100].veinsmobility  speed  ETV
vector 705  net.node[100].veinsmobility  acceleration  ETV
vector 706  net.node[100].veinsmobility  co2emission  ETV
vector 709  net.node[101].veinsmobility  posx  ETV
vector 710  net.node[101].veinsmobility  posy  ETV
vector 711  net.node[101].veinsmobility  speed  ETV
vector 712  net.node[101].veinsmobility  acceleration  ETV
vector 713  net.node[101].veinsmobility  co2emission  ETV
vector 716  net.node[102].veinsmobility  posx  ETV
vector 717  net.node[102].veinsmobility  posy  ETV
vector 718  net.node[102].veinsmobility  speed  ETV
vector 719  net.node[102].veinsmobility  acceleration  ETV
vector 720  net.node[102].veinsmobility  co2emission  ETV
vector 723  net.node[103].veinsmobility  posx  ETV
vector 724  net.node[103].veinsmobility  posy  ETV
vector 725  net.node[103].veinsmobility  speed  ETV
vector 726  net.node[103].veinsmobility  acceleration  ETV
vector 727  net.node[103].veinsmobility  co2emission  ETV
vector 730  net.node[104].veinsmobility  posx  ETV
vector 731  net.node[104].veinsmobility  posy  ETV
vector 732  net.node[104].veinsmobility  speed  ETV
vector 733  net.node[104].veinsmobility  acceleration  ETV
vector 734  net.node[104].veinsmobility  co2emission  ETV
vector 737  net.node[105].veinsmobility  posx  ETV
vector 738  net.node[105].veinsmobility  posy  ETV
vector 739  net.node[105].veinsmobility  speed  ETV
vector 740  net.node[105].veinsmobility  acceleration  ETV
vector 741  net.node[105].veinsmobility  co2emission  ETV
vector 744  net.node[106].veinsmobility  posx  ETV
vector 745  net.node[106].veinsmobility  posy  ETV
vector 746  net.node[106].veinsmobility  speed  ETV
vector 747  net.node[106].veinsmobility  acceleration  ETV
vector 748  net.node[106].veinsmobility  co2emission  ETV
vector 751  net.node[107].veinsmobility  posx  ETV
vector 752  net.node[107].veinsmobility  posy  ETV
vector 753  net.node[107].veinsmobility  speed  ETV
vector 754  net.node[107].veinsmobility  acceleration  ETV
vector 755  net.node[107].veinsmobility  co2emission  ETV
vector 758  net.node[108].veinsmobility  posx  ETV
vector 759  net.node[108].veinsmobility  posy  ETV
vector 760  net.node[108].veinsmobility  speed  ETV
vector 761  net.node[108].veinsmobility  acceleration  ETV
vector 762  net.node[108].veinsmobility  co2emission  ETV
vector 765  net.node[109].veinsmobility  posx  ETV
vector 766  net.node[109].veinsmobility  posy  ETV
vector 767  net.node[109].veinsmobility  speed  ETV
vector 768  net.node[109].veinsmobility  acceleration  ETV
vector 769  net.node[109].veinsmobility  co2emission  ETV
vector 772  net.node[110].veinsmobility  posx  ETV
vector 773  net.node[110].veinsmobility  posy  ETV
vector 774  net.node[110].veinsmobility  speed  ETV
vector 775  net.node[110].veinsmobility  acceleration  ETV
vector 776  net.node[110].veinsmobility  co2emission  ETV
vector 779  net.node[111].veinsmobility  posx  ETV
vector 780  net.node[111].veinsmobility  posy  ETV
vector 781  net.node[111].veinsmobility  speed  ETV
vector 782  net.node[111].veinsmobility  acceleration  ETV
vector 783  net.node[111].veinsmobility  co2emission  ETV
vector 786  net.node[112].veinsmobility  posx  ETV
vector 787  net.node[112].veinsmobility  posy  ETV